Variables = "X", "Y", "Ureal", "Vreal" , "Urec", "Vrec", "Uerror", "Verror" 
ZONE
i=128 , j=128
-5.25	-4	0.239239	0.959324	0.300414	0.940824	0.0611743	0.0185
-5.12992	-4	0.238928	0.958762	0.213643	0.955532	0.0252844	0.00323069
-5.00984	-4	0.238625	0.958173	0.211221	0.951483	0.0274033	0.00668913
-4.88976	-4	0.238324	0.957549	0.210275	0.953293	0.0280492	0.00425619
-4.76969	-4	0.238038	0.956895	0.212751	0.957321	0.0252866	0.000425518
-4.64961	-4	0.237756	0.956206	0.215123	0.954949	0.022633	0.001257
-4.52953	-4	0.237493	0.955484	0.212406	0.954595	0.025087	0.000889599
-4.40945	-4	0.237241	0.954725	0.209057	0.955684	0.0281847	0.000958741
-4.28937	-4	0.237002	0.953927	0.211546	0.956414	0.0254558	0.00248641
-4.16929	-4	0.236793	0.953096	0.213562	0.956541	0.0232305	0.00344497
-4.04921	-4	0.236602	0.952224	0.21277	0.95574	0.0238312	0.0035156
-3.92913	-4	0.236432	0.951309	0.212253	0.956991	0.0241781	0.00568169
-3.80906	-4	0.236299	0.950358	0.212628	0.957196	0.0236705	0.00683773
-3.68898	-4	0.236198	0.949368	0.213015	0.954132	0.0231833	0.00476378
-3.5689	-4	0.236132	0.948332	0.211856	0.953079	0.024276	0.00474644
-3.44882	-4	0.236105	0.947256	0.211982	0.948705	0.024123	0.00144863
-3.32874	-4	0.236128	0.946141	0.211764	0.950902	0.0243644	0.00476104
-3.20866	-4	0.236205	0.94499	0.213584	0.945612	0.022621	0.000622213
-3.08858	-4	0.236334	0.943799	0.213173	0.94459	0.0231605	0.000790894
-2.9685	-4	0.236524	0.94257	0.216464	0.94224	0.0200603	0.000329673
-2.84843	-4	0.236781	0.941308	0.217147	0.943555	0.0196342	0.00224733
-2.72835	-4	0.237111	0.940015	0.219988	0.937749	0.0171223	0.00226575
-2.60827	-4	0.237519	0.938694	0.220449	0.936052	0.0170698	0.00264263
-2.48819	-4	0.23801	0.93735	0.222025	0.938137	0.0159844	0.000786722
-2.36811	-4	0.23859	0.935988	0.224253	0.936263	0.0143372	0.000274897
-2.24803	-4	0.239264	0.934615	0.224355	0.93465	0.0149084	3.53E-05
-2.12795	-4	0.240036	0.933238	0.226689	0.933396	0.013347	0.00015825
-2.00787	-4	0.240912	0.931864	0.228177	0.933196	0.0127348	0.00133222
-1.8878	-4	0.241896	0.930501	0.22912	0.931732	0.0127761	0.00123024
-1.76772	-4	0.242991	0.929158	0.229594	0.9288	1.34E-02	3.58E-04
-1.64764	-4	0.2442	0.927844	0.231542	0.928174	0.0126581	0.000329793
-1.52756	-4	0.245528	0.92658	0.235845	0.923103	0.00968315	0.00347638
-1.40748	-4	0.246967	0.925374	0.235797	0.925498	0.0111701	0.000124157
-1.2874	-4	0.24852	0.924227	0.238151	0.918343	0.0103696	0.00588405
-1.16732	-4	0.250181	0.923157	0.239596	0.917088	0.0105851	0.00606871
-1.04724	-4	0.251954	0.922185	0.243915	0.915737	0.00803843	0.00644779
-0.927165	-4	0.253822	0.921322	0.243947	0.9145	0.00987473	6.82E-03
-0.807087	-4	0.255782	0.920569	0.245978	0.911658	0.0098033	0.00891119
-0.687008	-4	0.257826	0.919943	0.248829	0.910289	0.00899674	0.00965393
-0.566929	-4	0.259944	0.919467	0.254505	0.910938	0.00543901	0.0085296
-0.44685	-4	0.262116	0.919129	0.257113	0.909758	0.0050039	0.00937092
-0.326772	-4	0.26433	0.918952	0.260017	0.912852	0.0043124	0.0061
-0.206693	-4	0.266575	0.918941	0.265285	0.913004	0.0012899	0.00593656
-0.0866142	-4	0.26883	0.919082	0.270282	0.919916	0.00145221	0.000833809
0.0334646	-4	0.271082	0.919406	0.27214	0.916386	0.00105822	0.00301981
0.153543	-4	0.273304	0.91989	0.274256	0.919633	0.000951916	0.000256479
0.273622	-4	0.275494	0.920533	0.280627	0.91657	0.00513366	0.00396305
0.393701	-4	0.27762	0.921348	0.28698	0.916739	0.00936043	0.00460947
0.51378	-4	0.279676	0.922305	0.290277	0.915889	0.0106007	0.00641572
0.633858	-4	0.281643	0.923404	0.29286	0.915861	0.0112169	0.00754279
0.753937	-4	0.283511	0.92464	0.294799	0.916872	0.0112878	0.00776744
0.874016	-4	0.285271	0.925988	0.297565	0.910473	0.0122941	0.0155156
0.994094	-4	0.286904	0.927448	0.301794	0.918056	0.0148908	0.00939184
1.11417	-4	0.288407	0.929001	0.306634	0.914964	0.0182276	0.0140374
1.23425	-4	0.289783	0.930618	0.305628	0.919361	0.0158451	0.0112567
1.35433	-4	0.291013	0.932306	0.305192	0.925961	0.0141795	0.00634557
1.47441	-4	0.292105	0.934045	0.307344	0.93159	0.0152394	0.00245494
1.59449	-4	0.293059	0.935806	0.310349	0.934355	0.0172902	0.00145113
1.71457	-4	0.293882	0.937587	0.3112	0.937772	0.0173179	0.000185072
1.83465	-4	0.294563	0.939378	0.310473	0.943165	0.0159099	0.00378692
1.95472	-4	0.295112	0.941163	0.3104	0.947362	0.0152879	0.00619859
2.0748	-4	0.295541	0.942932	0.308848	0.944561	0.0133075	0.00162822
2.19488	-4	0.295854	0.944673	0.308631	0.946778	0.0127778	0.00210482
2.31496	-4	0.296057	0.946379	0.304848	0.950062	0.00879049	0.00368351
2.43504	-4	0.296158	0.948042	0.307315	0.947182	1.12E-02	0.000860333
2.55512	-4	0.296164	0.949656	0.305224	0.960451	0.00906059	0.0107952
2.6752	-4	0.296082	0.951218	0.308046	0.963345	1.20E-02	0.0121271
2.79528	-4	0.295922	0.952724	0.30381	0.973627	0.00788864	0.0209026
2.91535	-4	0.295689	0.954171	0.303637	0.971285	0.00794801	0.0171142
3.03543	-4	0.295393	0.955559	0.298882	0.974695	0.00348961	0.0191364
3.15551	-4	0.295042	0.956884	0.299436	0.975614	0.00439441	0.0187305
3.27559	-4	0.294642	0.958144	0.296951	0.968008	0.00230849	0.00986385
3.39567	-4	0.294199	0.959341	0.294798	0.969592	0.000598192	0.0102506
3.51575	-4	0.29372	0.960477	0.294269	0.968954	0.000548214	0.00847685
3.63583	-4	0.293212	0.961549	0.290839	0.969923	0.00237268	0.00837463
3.75591	-4	0.292679	0.962563	0.290653	0.96432	0.00202641	0.00175649
3.87598	-4	0.292117	0.963519	0.291413	0.968973	0.000703841	0.00545466
3.99606	-4	0.29154	0.96442	0.293648	0.965807	0.00210747	0.00138772
4.11614	-4	0.290954	0.965263	0.288718	0.96805	0.00223675	0.00278747
4.23622	-4	0.290361	0.966057	0.284167	0.966802	0.00619438	0.000745356
4.3563	-4	0.289752	0.966799	0.283644	0.97162	0.00610799	0.00482053
4.47638	-4	0.289143	0.967496	0.284908	0.970298	0.00423509	0.00280213
4.59646	-4	0.288539	0.968145	0.284065	0.972726	0.00447467	0.00458097
4.71654	-4	0.287925	0.968751	0.283447	0.976485	0.00447804	0.00773406
4.83661	-4	0.287319	0.969319	0.284564	0.977129	0.00275439	0.00781029
4.95669	-4	0.286718	0.969846	0.285538	0.97695	0.0011802	0.0071035
5.07677	-4	0.286119	0.970336	0.285198	0.975341	0.000921011	0.00500476
5.19685	-4	0.285533	0.970792	0.285118	0.975039	4.15E-04	0.00424737
5.31693	-4	0.284944	0.971215	0.286698	0.973391	0.00175399	0.00217527
5.43701	-4	0.284374	0.971608	0.286382	0.975148	0.0020085	0.00354058
5.55709	-4	0.283805	0.971971	0.28776	0.973129	0.00395468	0.00115794
5.67717	-4	0.283251	0.97231	0.286862	0.971839	0.00361109	0.000470996
5.79724	-4	0.282703	0.97262	0.286923	0.971011	0.00422004	0.00160915
5.91732	-4	0.282171	0.972907	0.284013	0.972643	0.00184157	0.000264883
6.0374	-4	0.281644	0.973172	0.285702	0.973659	0.00405818	0.000487745
6.15748	-4	0.281133	0.973417	0.2847	0.975086	0.00356629	0.00166947
6.27756	-4	0.280627	0.97364	0.284733	0.974555	0.0041059	0.000915408
6.39764	-4	0.28014	0.973846	0.283928	0.974319	0.00378865	0.000472665
6.51772	-4	0.279657	0.974034	0.283787	0.974212	0.00412992	0.000177622
6.6378	-4	0.279189	0.974205	0.286606	0.975307	0.00741723	0.00110173
6.75787	-4	0.278731	0.974363	0.286163	0.974089	0.00743118	0.00027436
6.87795	-4	0.278283	0.974505	0.287955	0.972186	0.00967139	0.00231946
6.99803	-4	0.277851	0.974635	0.28855	0.969142	0.0106994	0.00549376
7.11811	-4	0.277424	0.974752	0.293524	0.965102	0.0161004	0.00964934
7.23819	-4	0.277009	0.974856	0.292087	0.969005	0.0150776	0.00585055
7.35827	-4	0.276608	0.974951	0.291594	0.969141	0.0149857	0.0058105
7.47835	-4	0.276211	0.975034	0.295668	0.973888	0.0194572	0.00114632
7.59843	-4	0.275828	0.97511	0.297145	0.976025	0.0213173	0.000915825
7.7185	-4	0.275458	0.975175	0.295498	0.979036	0.02004	0.00386101
7.83858	-4	0.275091	0.975232	0.292658	0.975481	0.0175673	0.000248849
7.95866	-4	0.274737	0.975281	0.294335	0.981594	0.0195981	0.00631374
8.07874	-4	0.274393	0.975324	0.292768	0.987658	0.0183749	0.0123336
8.19882	-4	0.274055	0.975359	0.291397	0.982408	0.0173423	0.00704914
8.3189	-4	0.273727	0.975387	0.286831	0.987009	1.31E-02	0.0116214
8.43898	-4	0.273409	0.975411	0.28717	0.98436	0.0137604	0.00894856
8.55906	-4	0.2731	0.975428	0.283457	0.987788	0.0103571	0.0123597
8.67913	-4	0.272796	0.97544	0.278614	0.976668	0.00581738	0.00122732
8.79921	-4	0.272502	0.975449	0.271173	0.988332	0.00132909	0.012883
8.91929	-4	0.272217	0.975452	0.274541	0.986367	0.00232401	0.0109141
9.03937	-4	0.271938	0.975451	0.278445	0.978072	0.00650722	0.00262111
9.15945	-4	0.271665	0.975445	0.27248	0.975614	0.00081414	0.000168741
9.27953	-4	0.271401	0.975438	0.271199	0.972836	0.000202119	0.0026018
9.39961	-4	0.271145	0.975426	0.271693	0.971391	0.000548601	0.00403512
9.51968	-4	0.270894	0.975411	0.275602	0.966699	0.00470811	0.00871283
9.63976	-4	0.270648	0.975393	0.27013	0.96194	0.000518024	0.0134533
9.75984	-4	0.27041	0.975372	0.275793	0.980886	0.00538224	0.00551391
9.87992	-4	0.270179	0.97535	0.277726	0.976722	0.00754702	0.0013724
10	-4	0.269955	0.975326	0.265149	1.01198	0.00480571	0.0366523
-5.25	-3.79528	0.238303	0.9599	0.22315	0.963417	0.0151531	0.00351745
-5.12992	-3.79528	0.237944	0.959333	0.225055	0.964449	0.0128888	0.00511563
-5.00984	-3.79528	0.237583	0.958732	0.224642	0.967028	1.29E-02	0.00829577
-4.88976	-3.79528	0.237231	0.958099	0.225057	0.965283	0.0121732	0.00718474
-4.76969	-3.79528	0.236882	0.957429	0.223762	0.963854	0.0131202	0.00642484
-4.64961	-3.79528	0.236539	0.956723	0.226132	0.958037	0.0104074	0.00131416
-4.52953	-3.79528	0.236213	0.955981	0.220799	0.958732	0.0154146	0.00275087
-4.40945	-3.79528	0.235893	0.955195	0.219431	0.959064	0.0164615	0.00386953
-4.28937	-3.79528	0.235591	0.95437	0.221695	0.95604	0.013896	0.00166994
-4.16929	-3.79528	0.235309	0.953504	0.222305	0.95705	0.013004	0.0035466
-4.04921	-3.79528	0.235042	0.952588	0.220973	0.956139	0.0140684	0.00355059
-3.92913	-3.79528	0.234803	0.95163	0.220847	0.95876	0.0139561	0.00712961
-3.80906	-3.79528	0.234596	0.950628	0.220097	0.956048	0.0144985	0.00542027
-3.68898	-3.79528	0.234417	0.949573	0.219945	0.953597	0.0144719	0.00402451
-3.5689	-3.79528	0.234271	0.948471	0.217529	0.950677	0.0167423	0.00220519
-3.44882	-3.79528	0.234173	0.947322	0.218055	0.945403	0.0161184	0.00191933
-3.32874	-3.79528	0.23412	0.946126	0.2171	0.944877	0.0170203	0.00124979
-3.20866	-3.79528	0.234122	0.944878	0.219875	0.942747	0.014247	0.00213146
-3.08858	-3.79528	0.23418	0.943586	0.219571	0.939727	0.0146091	0.00385904
-2.9685	-3.79528	0.234302	0.942243	0.220753	0.936201	0.0135485	0.00604171
-2.84843	-3.79528	0.234493	0.940858	0.221435	0.935733	0.0130577	0.00512445
-2.72835	-3.79528	0.234762	0.939433	0.225215	0.93439	0.00954653	0.0050422
-2.60827	-3.79528	0.23512	0.937968	0.225126	0.932255	0.00999342	0.00571299
-2.48819	-3.79528	0.235567	0.936467	0.222906	0.932058	0.0126606	0.00440902
-2.36811	-3.79528	0.236112	0.934942	0.225785	0.928701	0.0103266	0.00624067
-2.24803	-3.79528	0.236762	0.933395	0.22518	0.929473	0.0115824	0.00392276
-2.12795	-3.79528	0.237527	0.931834	0.228419	0.927222	0.00910842	0.00461185
-2.00787	-3.79528	0.238411	0.930266	0.22868	0.926068	0.0097314	0.00419748
-1.8878	-3.79528	0.239419	0.928701	0.231058	0.923681	8.36E-03	0.00501996
-1.76772	-3.79528	0.240554	0.927149	0.232111	0.92595	0.00844312	0.00119931
-1.64764	-3.79528	0.241821	0.925625	0.234002	0.922408	0.00781912	0.00321692
-1.52756	-3.79528	0.24323	0.924149	0.23658	0.917877	0.00665021	0.00627166
-1.40748	-3.79528	0.244777	0.922723	0.236009	0.917913	0.00876765	0.00480974
-1.2874	-3.79528	0.246457	0.921361	0.235513	0.914664	0.0109439	0.00669694
-1.16732	-3.79528	0.248273	0.92009	0.238655	0.909914	0.00961827	0.0101756
-1.04724	-3.79528	0.250222	0.918928	0.240835	0.906952	0.00938645	0.0119762
-0.927165	-3.79528	0.252295	0.917871	0.243735	0.904762	0.00855912	0.0131093
-0.807087	-3.79528	0.254479	0.916954	0.247746	0.903877	0.00673354	0.0130768
-0.687008	-3.79528	0.25677	0.91619	0.253006	0.900094	0.00376412	0.0160968
-0.566929	-3.79528	0.25915	0.91557	0.255238	0.898725	0.00391141	0.0168447
-0.44685	-3.79528	0.261605	0.915149	0.25896	0.898828	0.00264493	0.0163209
-0.326772	-3.79528	0.264116	0.914894	0.265529	0.901116	0.00141314	0.0137782
-0.206693	-3.79528	0.266669	0.914843	0.269673	0.898372	0.00300413	0.0164712
-0.0866142	-3.79528	0.269236	0.914983	0.271988	0.905219	0.00275224	0.00976396
0.0334646	-3.79528	0.271795	0.915326	0.275088	0.905958	0.00329286	0.00936896
0.153543	-3.79528	0.274336	0.915872	0.276243	0.903181	0.00190705	0.0126908
0.273622	-3.79528	0.27682	0.916607	0.28157	0.902464	0.00474924	0.0141434
0.393701	-3.79528	0.279239	0.917542	0.287191	0.902925	0.00795174	0.0146164
0.51378	-3.79528	0.281573	0.918646	0.289903	0.906361	0.0083307	0.0122845
0.633858	-3.79528	0.28379	0.919936	0.295838	0.907549	0.0120477	0.0123864
0.753937	-3.79528	0.285896	0.921359	0.298846	0.91242	0.0129505	0.00893873
0.874016	-3.79528	0.287855	0.922941	0.307184	0.909394	0.0193292	0.0135469
0.994094	-3.79528	0.289671	0.924632	0.311046	0.914477	0.0213749	0.0101555
1.11417	-3.79528	0.291328	0.926429	0.317091	0.920843	0.0257624	0.00558615
1.23425	-3.79528	0.292819	0.928312	0.320297	0.92717	0.0274782	0.00114214
1.35433	-3.79528	0.294151	0.930256	0.3211	0.936047	0.026949	0.00579035
1.47441	-3.79528	0.295307	0.932251	0.323845	0.93525	0.0285387	0.00299889
1.59449	-3.79528	0.296299	0.934277	0.325945	0.940614	0.0296464	0.00633717
1.71457	-3.79528	0.29713	0.936308	0.321738	0.94578	0.0246074	0.00947154
1.83465	-3.79528	0.297813	0.938338	0.31525	0.950251	1.74E-02	0.0119127
1.95472	-3.79528	0.298333	0.940359	0.313653	0.952843	0.0153206	0.012484
2.0748	-3.79528	0.298712	0.942348	0.311474	0.943786	0.0127625	0.00143772
2.19488	-3.79528	0.298958	0.944293	0.303426	0.946692	0.00446835	0.00239855
2.31496	-3.79528	0.299083	0.946189	0.300381	0.949525	0.00129852	0.00333607
2.43504	-3.79528	0.299094	0.94803	0.302712	0.949026	0.00361764	0.000996292
2.55512	-3.79528	0.299004	0.949808	0.29808	0.960442	0.000923663	0.0106335
2.6752	-3.79528	0.298819	0.951516	0.299519	0.967105	0.000700891	0.015589
2.79528	-3.79528	0.298548	0.953153	0.297005	0.979681	0.0015426	0.0265285
2.91535	-3.79528	0.298201	0.954717	0.296905	0.978671	0.00129637	0.023954
3.03543	-3.79528	0.297787	0.956208	0.292448	0.978693	0.00533861	0.0224857
3.15551	-3.79528	0.29732	0.957622	0.29274	0.978402	0.00457928	0.02078
3.27559	-3.79528	0.296801	0.958959	0.294457	0.971658	0.00234354	1.27E-02
3.39567	-3.79528	0.29624	0.960223	0.291414	0.974048	0.00482547	0.0138248
3.51575	-3.79528	0.295647	0.961415	0.294007	0.973346	0.00163916	0.0119308
3.63583	-3.79528	0.295027	0.962535	0.291791	0.976169	0.00323585	0.0136344
3.75591	-3.79528	0.294385	0.963587	0.294216	0.968144	0.000168562	0.00455666
3.87598	-3.79528	0.293725	0.964571	0.293855	0.970716	0.000129253	0.00614482
3.99606	-3.79528	0.293047	0.965493	0.295679	0.97284	0.00263193	0.00734687
4.11614	-3.79528	0.292361	0.966355	0.29431	0.975335	0.00194851	0.00897992
4.23622	-3.79528	0.291676	0.967156	0.293588	0.97643	0.00191149	0.00927341
4.3563	-3.79528	0.290985	0.967906	0.292666	0.975683	0.00168017	0.00777787
4.47638	-3.79528	0.29029	0.968602	0.293555	0.975512	0.00326505	0.00691009
4.59646	-3.79528	0.289606	0.969248	0.288414	0.977347	0.00119182	0.0080986
4.71654	-3.79528	0.288923	0.969849	0.283201	0.977186	0.00572109	0.00733632
4.83661	-3.79528	0.288242	0.970407	0.28639	0.976017	0.00185248	0.00560969
4.95669	-3.79528	0.28758	0.970923	0.286613	0.969806	0.000966787	0.00111651
5.07677	-3.79528	0.286916	0.971399	0.283	0.967874	0.00391635	0.00352538
5.19685	-3.79528	0.286267	0.971841	0.283243	0.96769	0.00302461	0.00415015
5.31693	-3.79528	0.28563	0.972249	0.284384	0.966891	0.00124601	0.0053578
5.43701	-3.79528	0.285004	0.972624	0.282926	0.962917	0.002078	0.00970668
5.55709	-3.79528	0.284389	0.972968	0.283302	0.963662	0.00108698	0.00930583
5.67717	-3.79528	0.283789	0.973284	0.282411	0.96352	0.00137806	0.00976372
5.79724	-3.79528	0.283201	0.973576	0.28362	0.963688	0.000418782	0.00988865
5.91732	-3.79528	0.282625	0.973844	0.282107	0.964443	5.19E-04	0.00940102
6.0374	-3.79528	0.282064	0.974088	0.281938	0.96625	0.000125468	0.00783825
6.15748	-3.79528	0.281517	0.974311	0.282375	0.970425	8.57E-04	0.00388575
6.27756	-3.79528	0.28098	0.974513	0.282268	0.970778	0.00128719	0.00373495
6.39764	-3.79528	0.280462	0.974699	0.28291	0.971224	0.00244838	0.00347513
6.51772	-3.79528	0.27995	0.974866	0.281481	0.968639	0.00153053	0.00622696
6.6378	-3.79528	0.279457	0.975018	0.28279	0.971095	0.0033325	0.00392312
6.75787	-3.79528	0.278974	0.975155	0.282436	0.970366	0.00346237	0.00478882
6.87795	-3.79528	0.278502	0.975276	0.28229	0.971654	0.00378716	0.00362241
6.99803	-3.79528	0.278049	0.975387	0.28218	0.966627	0.00413117	0.00876045
7.11811	-3.79528	0.277601	0.975483	0.282558	0.961361	0.0049566	0.0141215
7.23819	-3.79528	0.277168	0.975569	0.278853	0.963562	0.00168458	0.0120074
7.35827	-3.79528	0.276749	0.975646	0.277949	0.970242	0.00120017	0.00540406
7.47835	-3.79528	0.276336	0.97571	0.286251	0.97925	0.00991538	0.00354004
7.59843	-3.79528	0.275937	0.975767	0.282073	0.97482	0.00613517	0.000947595
7.7185	-3.79528	0.275553	0.975816	0.286611	0.978987	0.011058	0.00317061
7.83858	-3.79528	0.275173	0.975855	0.288255	0.985185	0.0130823	0.00933003
7.95866	-3.79528	0.274806	0.975887	0.292718	0.990174	0.0179121	0.0142866
8.07874	-3.79528	0.274451	0.975914	0.287316	0.995292	1.29E-02	1.94E-02
8.19882	-3.79528	0.274103	0.975934	0.287621	0.992407	0.0135184	0.0164732
8.3189	-3.79528	0.273764	0.975946	0.279514	0.987944	0.00574931	0.011998
8.43898	-3.79528	0.273437	0.975955	0.282378	0.984113	0.00894091	0.00815755
8.55906	-3.79528	0.27312	0.975958	0.27704	0.985825	0.00391993	0.00986713
8.67913	-3.79528	0.272809	0.975955	0.273071	0.982144	0.000262201	0.00618857
8.79921	-3.79528	0.272506	0.97595	0.260286	0.985088	0.0122204	0.00913805
8.91929	-3.79528	0.272214	0.97594	0.26026	0.979747	0.0119536	0.00380754
9.03937	-3.79528	0.27193	0.975926	0.2639	0.973077	0.00803012	0.00284874
9.15945	-3.79528	0.27165	0.975908	0.25685	0.980059	0.0148006	0.00415045
9.27953	-3.79528	0.27138	0.975887	0.250451	0.975425	0.0209293	0.000461876
9.39961	-3.79528	0.271118	0.975863	0.260992	0.972536	0.0101265	0.00332719
9.51968	-3.79528	0.270864	0.975838	0.265185	0.97028	5.68E-03	0.00555754
9.63976	-3.79528	0.270614	0.975809	0.262372	0.973243	0.00824177	0.00256568
9.75984	-3.79528	0.270372	0.975776	0.267496	0.977772	0.0028756	0.00199568
9.87992	-3.79528	0.270136	0.975742	0.28656	0.978189	0.0164234	0.00244707
10	-3.79528	0.269908	0.975707	0.270018	1.00152	0.000109673	0.0258105
-5.25	-3.59055	0.237363	0.960563	0.243865	0.972201	0.00650233	0.0116372
-5.12992	-3.59055	0.236949	0.959996	0.225009	0.980288	0.0119402	0.0202918
-5.00984	-3.59055	0.236527	0.959391	0.233877	0.980677	0.00265002	0.0212857
-4.88976	-3.59055	0.236115	0.958752	0.236974	0.960847	0.000859469	0.00209534
-4.76969	-3.59055	0.235699	0.958072	0.234191	0.961633	0.00150822	0.00356144
-4.64961	-3.59055	0.235294	0.957355	0.234628	0.957875	0.000665665	0.00052017
-4.52953	-3.59055	0.234893	0.956595	0.233258	0.957637	0.00163476	0.00104183
-4.40945	-3.59055	0.2345	0.955789	0.229485	0.95472	0.00501515	0.00106919
-4.28937	-3.59055	0.234124	0.954938	0.229376	0.953326	0.00474773	0.00161201
-4.16929	-3.59055	0.233759	0.954038	0.229302	0.956964	0.00445738	0.00292671
-4.04921	-3.59055	0.233412	0.953088	0.230458	0.957799	0.00295351	0.00471103
-3.92913	-3.59055	0.233092	0.952088	0.227311	0.960704	0.00578161	0.00861543
-3.80906	-3.59055	0.232794	0.951031	0.22691	0.95576	0.00588384	0.00472909
-3.68898	-3.59055	0.232522	0.94992	0.224902	0.953632	0.00762004	0.00371253
-3.5689	-3.59055	0.232293	0.948756	0.224474	0.950769	0.00781925	0.00201327
-3.44882	-3.59055	0.232104	0.947531	0.223924	0.944733	0.00818023	0.0027982
-3.32874	-3.59055	0.231961	0.94625	0.221878	0.94342	0.0100829	0.00282925
-3.20866	-3.59055	0.231868	0.944905	0.222874	0.942674	0.00899413	0.00223058
-3.08858	-3.59055	0.231833	0.943505	0.223373	0.940078	0.00845978	0.00342757
-2.9685	-3.59055	0.231868	0.942045	0.223733	0.93688	0.00813505	0.00516504
-2.84843	-3.59055	0.231974	0.940527	0.2235	0.935401	0.00847347	0.00512588
-2.72835	-3.59055	0.232166	0.938958	0.224149	0.936303	0.00801665	0.00265491
-2.60827	-3.59055	0.232449	0.937338	0.224768	0.933067	0.0076814	0.00427097
-2.48819	-3.59055	0.232831	0.935668	0.224586	0.931742	0.00824469	0.00392568
-2.36811	-3.59055	0.233323	0.933959	0.225768	0.930001	0.00755461	0.00395846
-2.24803	-3.59055	0.233935	0.932218	0.226936	0.931102	0.00699851	0.0011161
-2.12795	-3.59055	0.234674	0.930444	0.230829	0.930047	0.00384493	0.000397444
-2.00787	-3.59055	0.235545	0.928654	0.230577	0.928586	0.00496824	6.87E-05
-1.8878	-3.59055	0.236559	0.926856	0.232636	0.925915	0.00392272	0.000940979
-1.76772	-3.59055	0.237724	0.92506	0.232196	0.926438	0.00552726	0.00137818
-1.64764	-3.59055	0.239044	0.923286	0.234874	0.924486	0.00416987	0.00120008
-1.52756	-3.59055	0.240531	0.921555	0.23541	0.922775	0.00512072	0.00121933
-1.40748	-3.59055	0.242185	0.919868	0.234781	0.920419	0.00740425	0.000550807
-1.2874	-3.59055	0.243996	0.918247	0.233915	0.919004	0.0100817	0.000757575
-1.16732	-3.59055	0.245982	0.916733	0.236477	0.914358	0.00950538	0.0023753
-1.04724	-3.59055	0.248124	0.915319	0.23458	0.914166	0.0135434	0.00115365
-0.927165	-3.59055	0.250426	0.914039	0.236847	0.905566	0.0135786	0.0084728
-0.807087	-3.59055	0.252872	0.912911	0.237609	0.904316	0.0152625	0.00859541
-0.687008	-3.59055	0.255446	0.911946	0.238397	0.901367	0.0170492	0.0105791
-0.566929	-3.59055	0.258139	0.911187	0.244937	0.897826	0.0132021	0.0133605
-0.44685	-3.59055	0.260929	0.910615	0.247564	0.89854	0.0133646	0.0120753
-0.326772	-3.59055	0.263795	0.910281	0.252532	0.896502	0.0112635	0.0137795
-0.206693	-3.59055	0.266707	0.910165	0.254533	0.894742	0.0121749	0.0154231
-0.0866142	-3.59055	0.26965	0.9103	0.258643	0.895228	0.0110073	0.0150719
0.0334646	-3.59055	0.272594	0.910665	0.263225	0.897601	0.00936818	0.0130635
0.153543	-3.59055	0.275497	0.911279	0.268438	0.894999	0.00705886	0.0162796
0.273622	-3.59055	0.278353	0.91213	0.272934	0.893913	0.00541842	0.0182164
0.393701	-3.59055	0.281118	0.91321	0.279032	0.895483	0.00208601	0.017727
0.51378	-3.59055	0.283773	0.914505	0.284267	0.899216	0.00049454	0.0152886
0.633858	-3.59055	0.286301	0.916	0.287244	0.900676	0.000942111	0.0153247
0.753937	-3.59055	0.288671	0.91769	0.292454	0.906573	0.00378281	0.0111167
0.874016	-3.59055	0.290877	0.919528	0.301408	0.909359	0.0105306	1.02E-02
0.994094	-3.59055	0.292892	0.921518	0.300995	0.916599	0.00810257	0.00491887
1.11417	-3.59055	0.294718	0.923614	0.303324	0.925509	0.00860548	0.0018943
1.23425	-3.59055	0.296347	0.925806	0.307797	0.933045	0.0114504	0.00723863
1.35433	-3.59055	0.297768	0.928074	0.309708	0.942998	0.0119404	0.0149243
1.47441	-3.59055	0.298994	0.930373	0.309714	0.944529	0.0107198	0.0141562
1.59449	-3.59055	0.300013	0.932709	0.307076	0.9517	0.00706246	0.0189909
1.71457	-3.59055	0.300842	0.93504	0.305436	0.953129	0.00459373	0.0180894
1.83465	-3.59055	0.301494	0.937352	0.301976	0.954032	0.000482202	0.0166801
1.95472	-3.59055	0.301963	0.939641	0.301635	0.959496	0.000328064	0.0198544
2.0748	-3.59055	0.302266	0.941882	0.300876	0.953088	0.00138995	0.0112062
2.19488	-3.59055	0.302424	0.944061	0.295079	0.952425	0.00734532	0.00836349
2.31496	-3.59055	0.302446	0.946171	0.293462	0.950276	0.00898373	0.00410509
2.43504	-3.59055	0.30234	0.948203	0.294776	0.951913	0.00756419	0.00370985
2.55512	-3.59055	0.30212	0.950156	0.294653	0.961499	0.00746694	0.0113437
2.6752	-3.59055	0.301794	0.952022	0.294965	0.968355	0.00682864	0.0163338
2.79528	-3.59055	0.301385	0.953798	0.293001	0.979916	0.00838342	0.0261184
2.91535	-3.59055	0.300898	0.955485	0.295989	0.978448	0.00490874	0.0229634
3.03543	-3.59055	0.300343	0.957076	0.297685	0.978345	0.00265762	0.021269
3.15551	-3.59055	0.299737	0.958578	0.299062	0.979252	0.000675023	0.0206733
3.27559	-3.59055	0.299083	0.959991	0.298878	0.974453	0.000204772	0.0144613
3.39567	-3.59055	0.298386	0.961319	0.298118	0.975415	0.000267804	0.0140958
3.51575	-3.59055	0.297659	0.962559	0.299998	0.974115	0.00233904	0.0115559
3.63583	-3.59055	0.296907	0.96372	0.298933	0.974046	0.00202677	0.0103265
3.75591	-3.59055	0.296142	0.9648	0.299867	0.969261	0.00372559	0.00446111
3.87598	-3.59055	0.295365	0.965809	0.296692	0.973246	0.00132623	0.00743681
3.99606	-3.59055	0.294583	0.966743	0.297446	0.978013	0.00286302	0.01127
4.11614	-3.59055	0.293788	0.967611	0.298622	0.982201	0.00483325	0.01459
4.23622	-3.59055	0.292996	0.968417	0.296238	0.985595	0.00324115	0.0171773
4.3563	-3.59055	0.292216	0.969163	0.294554	0.985519	0.00233805	0.0163565
4.47638	-3.59055	0.291433	0.969851	0.29116	0.985509	0.000272691	0.0156586
4.59646	-3.59055	0.290659	0.970487	0.287569	0.983543	0.00308996	0.0130557
4.71654	-3.59055	0.289901	0.971075	0.282638	0.978975	0.00726333	0.00790048
4.83661	-3.59055	0.289146	0.971615	0.284947	0.979981	0.00419903	0.00836527
4.95669	-3.59055	0.288409	0.972112	0.284588	0.976301	0.00382152	0.00418925
5.07677	-3.59055	0.287685	0.972568	0.282872	0.975261	0.00481391	0.00269282
5.19685	-3.59055	0.286974	0.972987	0.282094	0.971059	0.00488007	0.00192833
5.31693	-3.59055	0.286283	0.973372	0.283366	0.970766	0.00291681	0.00260657
5.43701	-3.59055	0.285598	0.973723	0.28255	0.966265	0.00304863	0.00745797
5.55709	-3.59055	0.284941	0.974045	0.282019	0.966283	0.00292253	0.00776196
5.67717	-3.59055	0.284289	0.974337	0.281534	0.965875	0.00275522	0.00846237
5.79724	-3.59055	0.283661	0.974604	0.282386	0.966242	0.001275	0.00836205
5.91732	-3.59055	0.283044	0.974844	0.281422	0.967495	0.00162199	0.00734979
6.0374	-3.59055	0.282447	0.975064	0.28005	0.969653	0.00239736	0.00541079
6.15748	-3.59055	0.281862	0.975262	0.281104	0.97273	0.000757307	0.00253195
6.27756	-3.59055	0.281296	0.975442	0.280516	0.973352	0.000779808	0.00209022
6.39764	-3.59055	0.280745	0.975602	0.279067	0.973939	0.00167817	0.00166357
6.51772	-3.59055	0.280206	0.975745	0.276383	0.973303	0.00382343	0.00244141
6.6378	-3.59055	0.279689	0.975874	0.278671	0.97435	0.0010179	0.00152361
6.75787	-3.59055	0.27918	0.975986	0.278923	0.973743	0.000257134	0.00224239
6.87795	-3.59055	0.278688	0.976085	0.277789	0.977351	0.000898927	0.0012666
6.99803	-3.59055	0.278211	0.976173	0.280316	0.973969	0.00210521	0.00220394
7.11811	-3.59055	0.277744	0.976248	0.275414	0.972698	0.00232983	0.00354934
7.23819	-3.59055	0.277294	0.976313	0.27205	0.97227	0.00524399	0.00404364
7.35827	-3.59055	0.276857	0.976368	0.273591	0.980377	0.00326636	0.00400871
7.47835	-3.59055	0.276429	0.976413	0.279678	0.987039	0.00324878	0.0106264
7.59843	-3.59055	0.276016	0.97645	0.276423	0.98297	0.00040701	0.00651991
7.7185	-3.59055	0.275618	0.976479	0.278049	0.988196	0.00243127	0.0117168
7.83858	-3.59055	0.275226	0.9765	0.280174	0.994582	0.00494853	0.018082
7.95866	-3.59055	0.274847	0.976513	0.280404	0.998397	0.00555673	0.0218831
8.07874	-3.59055	0.274482	0.976523	0.277281	1.00255	0.00279891	0.0260256
8.19882	-3.59055	0.274123	0.976525	0.278228	1.0003	0.00410432	0.023775
8.3189	-3.59055	0.273776	0.976521	0.279236	0.994792	0.00545976	0.0182709
8.43898	-3.59055	0.27344	0.976514	0.277887	0.991131	0.00444677	0.0146168
8.55906	-3.59055	0.273116	0.976502	0.271937	0.988732	0.00117904	0.0122299
8.67913	-3.59055	0.272796	0.976484	0.273398	0.983803	0.000602007	0.00731933
8.79921	-3.59055	0.272487	0.976462	0.262967	0.98205	0.00952065	0.00558782
8.91929	-3.59055	0.272189	0.976437	0.258959	0.978253	0.0132295	0.0018155
9.03937	-3.59055	0.271899	0.976411	0.257304	0.976344	0.0145955	6.68E-05
9.15945	-3.59055	0.271614	0.976379	0.255348	0.975983	0.0162663	0.00039649
9.27953	-3.59055	0.271339	0.976345	0.252972	0.973458	0.0183665	0.00288701
9.39961	-3.59055	0.271072	0.976308	0.254632	0.975782	0.0164396	0.000526667
9.51968	-3.59055	0.270814	0.97627	0.257165	0.98048	0.0136491	0.00421023
9.63976	-3.59055	0.270562	0.976229	0.256626	0.97741	0.0139364	0.00118113
9.75984	-3.59055	0.270315	0.976186	0.258763	0.980748	1.16E-02	4.56E-03
9.87992	-3.59055	0.270077	0.976141	0.255349	0.984618	0.0147276	0.00847721
10	-3.59055	0.269845	0.976095	0.255007	0.979086	0.0148382	0.00299102
-5.25	-3.38583	0.236428	0.961325	0.250949	0.982419	1.45E-02	2.11E-02
-5.12992	-3.38583	0.235948	0.960758	0.247895	0.980466	0.0119473	0.0197075
-5.00984	-3.38583	0.235472	0.960157	0.243842	0.97792	0.0083705	0.0177628
-4.88976	-3.38583	0.234987	0.959515	0.244949	0.95826	0.00996228	0.00125527
-4.76969	-3.38583	0.234506	0.958833	0.24298	0.957189	0.00847381	0.0016436
-4.64961	-3.38583	0.234025	0.958107	0.247257	0.951967	0.013232	0.00613904
-4.52953	-3.38583	0.233544	0.957334	0.242015	0.952968	0.00847119	0.00436622
-4.40945	-3.38583	0.233075	0.956517	0.237794	0.950248	0.00471833	0.00626832
-4.28937	-3.38583	0.232608	0.955645	0.236895	0.948151	0.00428696	0.00749409
-4.16929	-3.38583	0.232156	0.954721	0.238177	0.949804	0.00602086	0.00491673
-4.04921	-3.38583	0.231721	0.95374	0.236659	0.951567	0.00493844	0.00217313
-3.92913	-3.38583	0.2313	0.952699	0.235113	0.95654	0.00381325	0.00384021
-3.80906	-3.38583	0.230899	0.951598	0.236145	0.953409	0.00524589	0.0018115
-3.68898	-3.38583	0.230534	0.950437	0.234788	0.950566	0.00425375	0.000128746
-3.5689	-3.38583	0.230196	0.949208	0.233262	0.946623	0.00306636	0.00258476
-3.44882	-3.38583	0.229898	0.94791	0.234264	0.942128	0.00436638	0.00578153
-3.32874	-3.38583	0.229639	0.94654	0.232012	0.941685	0.00237302	0.00485545
-3.20866	-3.38583	0.229437	0.945104	0.231948	0.939653	0.00251086	0.00545126
-3.08858	-3.38583	0.229295	0.943596	0.231598	0.937705	2.30E-03	5.89E-03
-2.9685	-3.38583	0.229223	0.942016	0.230971	0.935512	0.00174792	0.0065046
-2.84843	-3.38583	0.229222	0.940366	0.230834	0.935169	0.00161158	0.00519723
-2.72835	-3.38583	0.229313	0.938643	0.231069	0.934591	0.00175627	0.00405169
-2.60827	-3.38583	0.229495	0.936856	0.231523	0.931781	0.00202827	0.0050751
-2.48819	-3.38583	0.229788	0.934999	0.229164	0.928241	0.000624016	0.0067575